<?xml version="1.0" encoding="UTF-8"?>

<!-- generated on 2023-06-28 13:09:34 by Eclipse SUMO GUI Version 1.17.0
<configuration xmlns:xsi="http://www.w3.org/2001/XMLSchema-instance" xsi:noNamespaceSchemaLocation="http://sumo.dlr.de/xsd/sumoConfiguration.xsd">

    <input>
        <net-file value="././Net/dqnm.net.xml"/>
        <route-files value="././Rou/random.rou.xml"/>
        <additional-files value="././Add/random.det.xml"/>
    </input>

    <output>
        <tripinfo-output value="tripinfo.xml"/>
    </output>

    <time>
        <begin value="0"/>
        <end value="10000"/>
    </time>

    <traci_server>
        <remote-port value="54309"/>
    </traci_server>

    <gui_only>
        <gui-settings-file value="./rl1.settings.xml"/>
    </gui_only>

</configuration>
-->

<tripinfos xmlns:xsi="http://www.w3.org/2001/XMLSchema-instance" xsi:noNamespaceSchemaLocation="http://sumo.dlr.de/xsd/tripinfo_file.xsd">
    <tripinfo id="27" depart="41.00" departLane="E8_0" departPos="5.10" departSpeed="0.00" departDelay="0.50" arrival="69.00" arrivalLane="E8_0" arrivalPos="282.84" arrivalSpeed="11.22" duration="28.00" routeLength="277.74" waitingTime="0.00" waitingCount="0" stopTime="0.00" timeLoss="4.39" rerouteNo="0" devices="tripinfo_27" vType="normal_car" speedFactor="0.95" vaporized=""/>
    <tripinfo id="8" depart="12.00" departLane="-E1_0" departPos="5.10" departSpeed="0.00" departDelay="0.00" arrival="72.00" arrivalLane="-E0_0" arrivalPos="200.00" arrivalSpeed="11.04" duration="60.00" routeLength="642.52" waitingTime="0.00" waitingCount="0" stopTime="0.00" timeLoss="6.32" rerouteNo="0" devices="tripinfo_8" vType="normal_car" speedFactor="0.94" vaporized=""/>
    <tripinfo id="30" depart="45.00" departLane="-E8_0" departPos="5.10" departSpeed="0.00" departDelay="0.00" arrival="73.00" arrivalLane="-E8_0" arrivalPos="282.84" arrivalSpeed="11.64" duration="28.00" routeLength="277.74" waitingTime="0.00" waitingCount="0" stopTime="0.00" timeLoss="4.14" rerouteNo="0" devices="tripinfo_30" vType="normal_car" speedFactor="1.18" vaporized=""/>
    <tripinfo id="13" depart="20.00" departLane="-E9_0" departPos="5.10" departSpeed="0.00" departDelay="0.50" arrival="92.00" arrivalLane="-E5_0" arrivalPos="282.84" arrivalSpeed="11.15" duration="72.00" routeLength="760.58" waitingTime="0.00" waitingCount="0" stopTime="0.00" timeLoss="8.24" rerouteNo="0" devices="tripinfo_13" vType="normal_car" speedFactor="1.12" vaporized=""/>
    <tripinfo id="14" depart="21.00" departLane="E6_0" departPos="5.10" departSpeed="0.00" departDelay="0.00" arrival="103.00" arrivalLane="E9_0" arrivalPos="200.00" arrivalSpeed="11.07" duration="82.00" routeLength="821.48" waitingTime="0.00" waitingCount="0" stopTime="0.00" timeLoss="13.31" rerouteNo="0" devices="tripinfo_14" vType="normal_car" speedFactor="0.99" vaporized=""/>
    <tripinfo id="16" depart="24.00" departLane="E0_0" departPos="5.10" departSpeed="0.00" departDelay="0.00" arrival="110.00" arrivalLane="E5_0" arrivalPos="282.84" arrivalSpeed="11.41" duration="86.00" routeLength="924.95" waitingTime="0.00" waitingCount="0" stopTime="0.00" timeLoss="8.56" rerouteNo="0" devices="tripinfo_16" vType="normal_car" speedFactor="0.88" vaporized=""/>
    <tripinfo id="5" depart="8.00" departLane="-E2_0" departPos="5.10" departSpeed="0.00" departDelay="0.50" arrival="116.00" arrivalLane="E4_0" arrivalPos="274.79" arrivalSpeed="11.25" duration="108.00" routeLength="1164.52" waitingTime="0.00" waitingCount="0" stopTime="0.00" timeLoss="10.28" rerouteNo="0" devices="tripinfo_5" vType="normal_car" speedFactor="0.83" vaporized=""/>
    <tripinfo id="29" depart="44.00" departLane="-E5_0" departPos="5.10" departSpeed="0.00" departDelay="0.50" arrival="117.00" arrivalLane="E7_0" arrivalPos="400.00" arrivalSpeed="8.50" duration="73.00" routeLength="677.74" waitingTime="0.00" waitingCount="0" stopTime="0.00" timeLoss="6.47" rerouteNo="0" devices="tripinfo_29" vType="normal_car" speedFactor="0.93" vaporized=""/>
    <tripinfo id="19" depart="29.00" departLane="E4_0" departPos="5.10" departSpeed="0.00" departDelay="0.50" arrival="118.00" arrivalLane="-E8_0" arrivalPos="282.84" arrivalSpeed="11.83" duration="89.00" routeLength="952.53" waitingTime="0.00" waitingCount="0" stopTime="0.00" timeLoss="8.38" rerouteNo="0" devices="tripinfo_19" vType="normal_car" speedFactor="1.16" vaporized=""/>
    <tripinfo id="11" depart="17.00" departLane="-E5_0" departPos="5.10" departSpeed="0.00" departDelay="0.50" arrival="125.00" arrivalLane="E1_0" arrivalPos="447.62" arrivalSpeed="11.80" duration="108.00" routeLength="1172.57" waitingTime="0.00" waitingCount="0" stopTime="0.00" timeLoss="9.89" rerouteNo="0" devices="tripinfo_11" vType="normal_car" speedFactor="1.03" vaporized=""/>
    <tripinfo id="46" depart="79.00" departLane="E5_0" departPos="5.10" departSpeed="0.00" departDelay="10.00" arrival="133.00" arrivalLane="E8_0" arrivalPos="282.84" arrivalSpeed="11.55" duration="54.00" routeLength="560.58" waitingTime="0.00" waitingCount="0" stopTime="0.00" timeLoss="7.22" rerouteNo="0" devices="tripinfo_46" vType="normal_car" speedFactor="1.00" vaporized=""/>
    <tripinfo id="1" depart="2.00" departLane="-E6_0" departPos="8.10" departSpeed="0.00" departDelay="0.50" arrival="136.00" arrivalLane="-E6_0" arrivalPos="626.58" arrivalSpeed="4.71" duration="134.00" routeLength="618.48" waitingTime="0.00" waitingCount="0" stopTime="0.00" timeLoss="9.48" rerouteNo="0" devices="tripinfo_1" vType="truck" speedFactor="0.94" vaporized=""/>
    <tripinfo id="6" depart="9.00" departLane="E3_0" departPos="8.10" departSpeed="0.00" departDelay="0.00" arrival="137.00" arrivalLane="E3_0" arrivalPos="600.00" arrivalSpeed="4.83" duration="128.00" routeLength="591.90" waitingTime="0.00" waitingCount="0" stopTime="0.00" timeLoss="9.41" rerouteNo="0" devices="tripinfo_6" vType="truck" speedFactor="1.05" vaporized=""/>
    <tripinfo id="21" depart="32.00" departLane="E4_0" departPos="5.10" departSpeed="0.00" departDelay="0.50" arrival="139.00" arrivalLane="E1_0" arrivalPos="447.62" arrivalSpeed="11.92" duration="107.00" routeLength="1164.52" waitingTime="0.00" waitingCount="0" stopTime="0.00" timeLoss="9.33" rerouteNo="0" devices="tripinfo_21" vType="normal_car" speedFactor="1.01" vaporized=""/>
    <tripinfo id="35" depart="53.00" departLane="-E5_0" departPos="5.10" departSpeed="0.00" departDelay="0.50" arrival="141.00" arrivalLane="E9_0" arrivalPos="200.00" arrivalSpeed="11.26" duration="88.00" routeLength="877.74" waitingTime="0.00" waitingCount="0" stopTime="0.00" timeLoss="8.68" rerouteNo="0" devices="tripinfo_35" vType="normal_car" speedFactor="1.02" vaporized=""/>
    <tripinfo id="70" depart="105.00" departLane="-E2_0" departPos="5.10" departSpeed="0.00" departDelay="0.00" arrival="147.00" arrivalLane="-E2_0" arrivalPos="447.21" arrivalSpeed="11.33" duration="42.00" routeLength="442.11" waitingTime="0.00" waitingCount="0" stopTime="0.00" timeLoss="4.81" rerouteNo="0" devices="tripinfo_70" vType="normal_car" speedFactor="1.02" vaporized=""/>
    <tripinfo id="2" depart="3.00" departLane="-E7_0" departPos="5.10" departSpeed="0.00" departDelay="0.00" arrival="149.00" arrivalLane="-E3_0" arrivalPos="600.00" arrivalSpeed="9.95" duration="146.00" routeLength="1277.74" waitingTime="0.00" waitingCount="0" stopTime="0.00" timeLoss="32.68" rerouteNo="0" devices="tripinfo_2" vType="normal_car" speedFactor="1.01" vaporized=""/>
    <tripinfo id="12" depart="18.00" departLane="E6_0" departPos="5.10" departSpeed="0.00" departDelay="0.00" arrival="151.00" arrivalLane="-E5_0" arrivalPos="282.84" arrivalSpeed="6.33" duration="133.00" routeLength="1187.16" waitingTime="4.00" waitingCount="1" stopTime="0.00" timeLoss="33.97" rerouteNo="0" devices="tripinfo_12" vType="normal_car" speedFactor="1.05" vaporized=""/>
    <tripinfo id="22" depart="33.00" departLane="E7_0" departPos="5.10" departSpeed="0.00" departDelay="0.00" arrival="153.00" arrivalLane="-E5_0" arrivalPos="282.84" arrivalSpeed="8.06" duration="120.00" routeLength="960.58" waitingTime="3.00" waitingCount="1" stopTime="0.00" timeLoss="32.22" rerouteNo="0" devices="tripinfo_22" vType="normal_car" speedFactor="0.97" vaporized=""/>
    <tripinfo id="55" depart="83.00" departLane="-E9_0" departPos="5.10" departSpeed="0.00" departDelay="0.50" arrival="159.00" arrivalLane="-E5_0" arrivalPos="282.84" arrivalSpeed="10.63" duration="76.00" routeLength="760.58" waitingTime="0.00" waitingCount="0" stopTime="0.00" timeLoss="12.37" rerouteNo="0" devices="tripinfo_55" vType="normal_car" speedFactor="1.00" vaporized=""/>
    <tripinfo id="44" depart="66.00" departLane="E1_0" departPos="5.10" departSpeed="0.00" departDelay="0.00" arrival="171.00" arrivalLane="-E2_0" arrivalPos="447.21" arrivalSpeed="11.53" duration="105.00" routeLength="1164.52" waitingTime="0.00" waitingCount="0" stopTime="0.00" timeLoss="7.73" rerouteNo="0" devices="tripinfo_44" vType="normal_car" speedFactor="1.04" vaporized=""/>
    <tripinfo id="37" depart="56.00" departLane="-E9_0" departPos="5.10" departSpeed="0.00" departDelay="0.50" arrival="176.00" arrivalLane="-E2_0" arrivalPos="447.21" arrivalSpeed="11.84" duration="120.00" routeLength="1042.11" waitingTime="14.00" waitingCount="1" stopTime="0.00" timeLoss="31.68" rerouteNo="0" devices="tripinfo_37" vType="normal_car" speedFactor="1.18" vaporized=""/>
    <tripinfo id="90" depart="135.00" departLane="E1_0" departPos="5.10" departSpeed="0.00" departDelay="0.00" arrival="178.00" arrivalLane="E1_0" arrivalPos="447.62" arrivalSpeed="11.55" duration="43.00" routeLength="442.52" waitingTime="0.00" waitingCount="0" stopTime="0.00" timeLoss="5.51" rerouteNo="0" devices="tripinfo_90" vType="normal_car" speedFactor="1.02" vaporized=""/>
    <tripinfo id="36" depart="54.00" departLane="E1_0" departPos="5.10" departSpeed="0.00" departDelay="0.00" arrival="180.00" arrivalLane="E8_0" arrivalPos="282.84" arrivalSpeed="11.80" duration="126.00" routeLength="1282.99" waitingTime="0.00" waitingCount="0" stopTime="0.00" timeLoss="18.80" rerouteNo="0" devices="tripinfo_36" vType="normal_car" speedFactor="0.97" vaporized=""/>
    <tripinfo id="80" depart="120.00" departLane="E7_0" departPos="5.10" departSpeed="0.00" departDelay="0.00" arrival="181.00" arrivalLane="E9_0" arrivalPos="200.00" arrivalSpeed="11.67" duration="61.00" routeLength="594.90" waitingTime="0.00" waitingCount="0" stopTime="0.00" timeLoss="5.30" rerouteNo="0" devices="tripinfo_80" vType="normal_car" speedFactor="1.03" vaporized=""/>
    <tripinfo id="15" depart="23.00" departLane="-E3_0" departPos="5.10" departSpeed="0.00" departDelay="0.50" arrival="184.00" arrivalLane="E1_0" arrivalPos="447.62" arrivalSpeed="11.46" duration="161.00" routeLength="1042.52" waitingTime="0.00" waitingCount="0" stopTime="0.00" timeLoss="73.66" rerouteNo="0" devices="tripinfo_15" vType="normal_car" speedFactor="0.93" vaporized=""/>
    <tripinfo id="68" depart="102.00" departLane="E4_0" departPos="5.10" departSpeed="0.00" departDelay="0.00" arrival="184.00" arrivalLane="E8_0" arrivalPos="282.84" arrivalSpeed="11.50" duration="82.00" routeLength="835.37" waitingTime="0.00" waitingCount="0" stopTime="0.00" timeLoss="11.52" rerouteNo="0" devices="tripinfo_68" vType="normal_car" speedFactor="1.04" vaporized=""/>
    <tripinfo id="32" depart="48.00" departLane="E0_0" departPos="8.10" departSpeed="0.00" departDelay="0.00" arrival="186.00" arrivalLane="E2_0" arrivalPos="447.21" arrivalSpeed="4.65" duration="138.00" routeLength="639.11" waitingTime="0.00" waitingCount="0" stopTime="0.00" timeLoss="9.54" rerouteNo="0" devices="tripinfo_32" vType="truck" speedFactor="1.01" vaporized=""/>
    <tripinfo id="98" depart="147.00" departLane="-E7_0" departPos="5.10" departSpeed="0.00" departDelay="0.00" arrival="187.00" arrivalLane="-E7_0" arrivalPos="400.00" arrivalSpeed="10.81" duration="40.00" routeLength="394.90" waitingTime="0.00" waitingCount="0" stopTime="0.00" timeLoss="4.14" rerouteNo="0" devices="tripinfo_98" vType="normal_car" speedFactor="1.12" vaporized=""/>
    <tripinfo id="45" depart="68.00" departLane="-E9_0" departPos="5.10" departSpeed="0.00" departDelay="0.50" arrival="189.00" arrivalLane="E8_0" arrivalPos="282.84" arrivalSpeed="11.85" duration="121.00" routeLength="1160.58" waitingTime="6.00" waitingCount="1" stopTime="0.00" timeLoss="19.95" rerouteNo="0" devices="tripinfo_45" vType="normal_car" speedFactor="1.09" vaporized=""/>
    <tripinfo id="7" depart="11.00" departLane="E2_0" departPos="5.10" departSpeed="0.00" departDelay="0.50" arrival="196.00" arrivalLane="-E1_0" arrivalPos="447.62" arrivalSpeed="6.92" duration="185.00" routeLength="1164.52" waitingTime="21.00" waitingCount="1" stopTime="0.00" timeLoss="87.72" rerouteNo="0" devices="tripinfo_7" vType="normal_car" speedFactor="0.89" vaporized=""/>
    <tripinfo id="48" depart="86.00" departLane="E5_0" departPos="5.10" departSpeed="0.00" departDelay="14.00" arrival="205.00" arrivalLane="E1_0" arrivalPos="447.62" arrivalSpeed="11.73" duration="119.00" routeLength="1325.36" waitingTime="0.00" waitingCount="0" stopTime="0.00" timeLoss="8.20" rerouteNo="0" devices="tripinfo_48" vType="normal_car" speedFactor="0.88" vaporized=""/>
    <tripinfo id="93" depart="140.00" departLane="E4_0" departPos="5.10" departSpeed="0.00" departDelay="0.50" arrival="207.00" arrivalLane="-E2_0" arrivalPos="447.21" arrivalSpeed="9.80" duration="67.00" routeLength="716.90" waitingTime="0.00" waitingCount="0" stopTime="0.00" timeLoss="6.59" rerouteNo="0" devices="tripinfo_93" vType="normal_car" speedFactor="0.92" vaporized=""/>
    <tripinfo id="10" depart="15.00" departLane="-E1_0" departPos="5.10" departSpeed="0.00" departDelay="0.00" arrival="210.00" arrivalLane="-E2_0" arrivalPos="447.21" arrivalSpeed="11.98" duration="195.00" routeLength="1772.57" waitingTime="0.00" waitingCount="0" stopTime="0.00" timeLoss="46.33" rerouteNo="0" devices="tripinfo_10" vType="normal_car" speedFactor="1.09" vaporized=""/>
    <tripinfo id="57" depart="92.00" departLane="-E4_0" departPos="5.10" departSpeed="0.00" departDelay="6.50" arrival="210.00" arrivalLane="-E1_0" arrivalPos="447.62" arrivalSpeed="6.87" duration="118.00" routeLength="717.31" waitingTime="0.00" waitingCount="0" stopTime="0.00" timeLoss="57.99" rerouteNo="0" devices="tripinfo_57" vType="normal_car" speedFactor="1.14" vaporized=""/>
    <tripinfo id="61" depart="92.00" departLane="-E5_0" departPos="5.10" departSpeed="0.00" departDelay="0.50" arrival="211.00" arrivalLane="-E4_0" arrivalPos="274.79" arrivalSpeed="4.25" duration="119.00" routeLength="552.53" waitingTime="2.00" waitingCount="1" stopTime="0.00" timeLoss="72.93" rerouteNo="0" devices="tripinfo_61" vType="normal_car" speedFactor="1.12" vaporized=""/>
    <tripinfo id="23" depart="35.00" departLane="E5_0" departPos="5.10" departSpeed="0.00" departDelay="0.50" arrival="213.00" arrivalLane="-E6_0" arrivalPos="626.58" arrivalSpeed="6.17" duration="178.00" routeLength="1187.16" waitingTime="6.00" waitingCount="1" stopTime="0.00" timeLoss="79.07" rerouteNo="0" devices="tripinfo_23" vType="normal_car" speedFactor="0.89" vaporized=""/>
    <tripinfo id="65" depart="98.00" departLane="-E5_0" departPos="5.10" departSpeed="0.00" departDelay="0.50" arrival="228.00" arrivalLane="E1_0" arrivalPos="447.62" arrivalSpeed="11.33" duration="130.00" routeLength="1172.57" waitingTime="0.00" waitingCount="0" stopTime="0.00" timeLoss="31.83" rerouteNo="0" devices="tripinfo_65" vType="normal_car" speedFactor="0.88" vaporized=""/>
    <tripinfo id="28" depart="42.00" departLane="E4_0" departPos="5.10" departSpeed="0.00" departDelay="0.00" arrival="231.00" arrivalLane="-E4_0" arrivalPos="274.79" arrivalSpeed="5.27" duration="189.00" routeLength="1510.16" waitingTime="10.00" waitingCount="3" stopTime="0.00" timeLoss="60.76" rerouteNo="0" devices="tripinfo_28" vType="normal_car" speedFactor="1.13" vaporized=""/>
    <tripinfo id="66" depart="99.00" departLane="-E6_0" departPos="8.10" departSpeed="0.00" departDelay="0.00" arrival="233.00" arrivalLane="-E6_0" arrivalPos="626.58" arrivalSpeed="4.59" duration="134.00" routeLength="618.48" waitingTime="0.00" waitingCount="0" stopTime="0.00" timeLoss="9.58" rerouteNo="0" devices="tripinfo_66" vType="truck" speedFactor="0.91" vaporized=""/>
    <tripinfo id="38" depart="57.00" departLane="-E3_0" departPos="5.10" departSpeed="0.00" departDelay="0.00" arrival="239.00" arrivalLane="E2_0" arrivalPos="447.21" arrivalSpeed="8.60" duration="182.00" routeLength="1042.11" waitingTime="0.00" waitingCount="0" stopTime="0.00" timeLoss="94.46" rerouteNo="0" devices="tripinfo_38" vType="normal_car" speedFactor="1.10" vaporized=""/>
    <tripinfo id="43" depart="65.00" departLane="E3_0" departPos="5.10" departSpeed="0.00" departDelay="0.50" arrival="239.00" arrivalLane="-E0_0" arrivalPos="200.00" arrivalSpeed="11.32" duration="174.00" routeLength="1524.95" waitingTime="3.00" waitingCount="1" stopTime="0.00" timeLoss="46.13" rerouteNo="0" devices="tripinfo_43" vType="normal_car" speedFactor="1.04" vaporized=""/>
    <tripinfo id="62" depart="93.00" departLane="E0_0" departPos="5.10" departSpeed="0.00" departDelay="0.00" arrival="239.00" arrivalLane="E8_0" arrivalPos="282.84" arrivalSpeed="11.65" duration="146.00" routeLength="1077.74" waitingTime="0.00" waitingCount="0" stopTime="0.00" timeLoss="55.47" rerouteNo="0" devices="tripinfo_62" vType="normal_car" speedFactor="1.02" vaporized=""/>
    <tripinfo id="42" depart="65.00" departLane="E8_0" departPos="5.10" departSpeed="0.00" departDelay="2.00" arrival="245.00" arrivalLane="E1_0" arrivalPos="447.62" arrivalSpeed="11.50" duration="180.00" routeLength="1572.57" waitingTime="21.00" waitingCount="2" stopTime="0.00" timeLoss="44.91" rerouteNo="0" devices="tripinfo_42" vType="normal_car" speedFactor="1.09" vaporized=""/>
    <tripinfo id="127" depart="192.00" departLane="-E4_0" departPos="8.10" departSpeed="0.00" departDelay="1.50" arrival="252.00" arrivalLane="-E4_0" arrivalPos="274.79" arrivalSpeed="4.67" duration="60.00" routeLength="266.69" waitingTime="0.00" waitingCount="0" stopTime="0.00" timeLoss="5.78" rerouteNo="0" devices="tripinfo_127" vType="truck" speedFactor="0.82" vaporized=""/>
    <tripinfo id="99" depart="174.00" departLane="E5_0" departPos="5.10" departSpeed="0.00" departDelay="25.50" arrival="258.00" arrivalLane="E8_0" arrivalPos="282.84" arrivalSpeed="7.64" duration="84.00" routeLength="560.58" waitingTime="21.00" waitingCount="1" stopTime="0.00" timeLoss="37.05" rerouteNo="0" devices="tripinfo_99" vType="normal_car" speedFactor="1.10" vaporized=""/>
    <tripinfo id="75" depart="114.00" departLane="E8_0" departPos="5.10" departSpeed="0.00" departDelay="1.50" arrival="267.00" arrivalLane="-E6_0" arrivalPos="626.58" arrivalSpeed="5.63" duration="153.00" routeLength="904.32" waitingTime="0.00" waitingCount="0" stopTime="0.00" timeLoss="77.64" rerouteNo="0" devices="tripinfo_75" vType="normal_car" speedFactor="0.98" vaporized=""/>
    <tripinfo id="100" depart="151.00" departLane="-E5_0" departPos="8.10" departSpeed="0.00" departDelay="1.00" arrival="270.00" arrivalLane="-E4_0" arrivalPos="274.79" arrivalSpeed="4.68" duration="119.00" routeLength="549.53" waitingTime="0.00" waitingCount="0" stopTime="0.00" timeLoss="8.52" rerouteNo="0" devices="tripinfo_100" vType="truck" speedFactor="1.06" vaporized=""/>
    <tripinfo id="33" depart="59.00" departLane="E3_0" departPos="5.10" departSpeed="0.00" departDelay="9.50" arrival="271.00" arrivalLane="-E6_0" arrivalPos="626.58" arrivalSpeed="8.81" duration="212.00" routeLength="1504.32" waitingTime="2.00" waitingCount="1" stopTime="0.00" timeLoss="86.62" rerouteNo="0" devices="tripinfo_33" vType="normal_car" speedFactor="1.17" vaporized=""/>
    <tripinfo id="17" depart="26.00" departLane="-E4_0" departPos="8.10" departSpeed="0.00" departDelay="0.50" arrival="277.00" arrivalLane="-E8_0" arrivalPos="282.84" arrivalSpeed="4.61" duration="251.00" routeLength="1176.11" waitingTime="0.00" waitingCount="0" stopTime="0.00" timeLoss="15.43" rerouteNo="0" devices="tripinfo_17" vType="truck" speedFactor="0.94" vaporized=""/>
    <tripinfo id="20" depart="30.00" departLane="-E7_0" departPos="5.10" departSpeed="0.00" departDelay="0.00" arrival="279.00" arrivalLane="-E8_0" arrivalPos="282.84" arrivalSpeed="8.04" duration="249.00" routeLength="1579.11" waitingTime="0.00" waitingCount="0" stopTime="0.00" timeLoss="111.54" rerouteNo="0" devices="tripinfo_20" vType="normal_car" speedFactor="1.02" vaporized=""/>
    <tripinfo id="51" depart="77.00" departLane="-E3_0" departPos="5.10" departSpeed="0.00" departDelay="0.50" arrival="279.00" arrivalLane="-E4_0" arrivalPos="274.79" arrivalSpeed="11.27" duration="202.00" routeLength="1316.90" waitingTime="0.00" waitingCount="0" stopTime="0.00" timeLoss="91.61" rerouteNo="0" devices="tripinfo_51" vType="normal_car" speedFactor="1.17" vaporized=""/>
    <tripinfo id="58" depart="87.00" departLane="E3_0" departPos="5.10" departSpeed="0.00" departDelay="0.00" arrival="286.00" arrivalLane="-E6_0" arrivalPos="626.58" arrivalSpeed="11.82" duration="199.00" routeLength="1504.32" waitingTime="0.00" waitingCount="0" stopTime="0.00" timeLoss="72.89" rerouteNo="0" devices="tripinfo_58" vType="normal_car" speedFactor="1.02" vaporized=""/>
    <tripinfo id="39" depart="63.00" departLane="-E7_0" departPos="5.10" departSpeed="0.00" departDelay="4.50" arrival="294.00" arrivalLane="E6_0" arrivalPos="626.58" arrivalSpeed="6.05" duration="231.00" routeLength="1296.27" waitingTime="0.00" waitingCount="0" stopTime="0.00" timeLoss="111.86" rerouteNo="0" devices="tripinfo_39" vType="normal_car" speedFactor="0.90" vaporized=""/>
    <tripinfo id="9" depart="14.00" departLane="-E3_0" departPos="8.10" departSpeed="0.00" departDelay="0.50" arrival="295.00" arrivalLane="E5_0" arrivalPos="282.84" arrivalSpeed="5.00" duration="281.00" routeLength="1321.95" waitingTime="0.00" waitingCount="0" stopTime="0.00" timeLoss="16.37" rerouteNo="0" devices="tripinfo_9" vType="truck" speedFactor="0.86" vaporized=""/>
    <tripinfo id="67" depart="101.00" departLane="E0_0" departPos="5.10" departSpeed="0.00" departDelay="0.50" arrival="297.00" arrivalLane="-E6_0" arrivalPos="626.58" arrivalSpeed="11.15" duration="196.00" routeLength="1704.32" waitingTime="0.00" waitingCount="0" stopTime="0.00" timeLoss="53.59" rerouteNo="0" devices="tripinfo_67" vType="normal_car" speedFactor="0.91" vaporized=""/>
    <tripinfo id="49" depart="85.00" departLane="E7_0" departPos="5.10" departSpeed="0.00" departDelay="11.50" arrival="300.00" arrivalLane="-E3_0" arrivalPos="600.00" arrivalSpeed="7.93" duration="215.00" routeLength="1277.74" waitingTime="0.00" waitingCount="0" stopTime="0.00" timeLoss="94.44" rerouteNo="0" devices="tripinfo_49" vType="normal_car" speedFactor="0.85" vaporized=""/>
    <tripinfo id="64" depart="96.00" departLane="-E3_0" departPos="5.10" departSpeed="0.00" departDelay="0.00" arrival="301.00" arrivalLane="E3_0" arrivalPos="600.00" arrivalSpeed="7.09" duration="205.00" routeLength="1594.90" waitingTime="0.00" waitingCount="0" stopTime="0.00" timeLoss="72.01" rerouteNo="0" devices="tripinfo_64" vType="normal_car" speedFactor="0.94" vaporized=""/>
    <tripinfo id="52" depart="81.00" departLane="-E4_0" departPos="5.10" departSpeed="0.00" departDelay="3.00" arrival="306.00" arrivalLane="E3_0" arrivalPos="600.00" arrivalSpeed="9.06" duration="225.00" routeLength="1317.31" waitingTime="0.00" waitingCount="0" stopTime="0.00" timeLoss="114.78" rerouteNo="0" devices="tripinfo_52" vType="normal_car" speedFactor="1.02" vaporized=""/>
    <tripinfo id="101" depart="152.00" departLane="E3_0" departPos="5.10" departSpeed="0.00" departDelay="0.50" arrival="307.00" arrivalLane="-E6_0" arrivalPos="626.58" arrivalSpeed="11.58" duration="155.00" routeLength="1504.32" waitingTime="1.00" waitingCount="1" stopTime="0.00" timeLoss="29.53" rerouteNo="0" devices="tripinfo_101" vType="normal_car" speedFactor="0.96" vaporized=""/>
    <tripinfo id="84" depart="168.00" departLane="E5_0" departPos="5.10" departSpeed="0.00" departDelay="42.00" arrival="309.00" arrivalLane="-E6_0" arrivalPos="626.58" arrivalSpeed="11.62" duration="141.00" routeLength="1187.16" waitingTime="24.00" waitingCount="1" stopTime="0.00" timeLoss="41.96" rerouteNo="0" devices="tripinfo_84" vType="normal_car" speedFactor="1.15" vaporized=""/>
    <tripinfo id="83" depart="125.00" departLane="E2_0" departPos="5.10" departSpeed="0.00" departDelay="0.50" arrival="310.00" arrivalLane="E8_0" arrivalPos="282.84" arrivalSpeed="7.58" duration="185.00" routeLength="1007.79" waitingTime="20.00" waitingCount="2" stopTime="0.00" timeLoss="100.54" rerouteNo="0" devices="tripinfo_83" vType="normal_car" speedFactor="0.97" vaporized=""/>
    <tripinfo id="176" depart="264.00" departLane="E8_0" departPos="5.10" departSpeed="0.00" departDelay="0.00" arrival="314.00" arrivalLane="E8_0" arrivalPos="282.84" arrivalSpeed="9.13" duration="50.00" routeLength="277.74" waitingTime="6.00" waitingCount="1" stopTime="0.00" timeLoss="26.53" rerouteNo="0" devices="tripinfo_176" vType="normal_car" speedFactor="1.09" vaporized=""/>
    <tripinfo id="18" depart="27.00" departLane="E3_0" departPos="5.10" departSpeed="0.00" departDelay="0.00" arrival="315.00" arrivalLane="E5_0" arrivalPos="282.84" arrivalSpeed="6.51" duration="288.00" routeLength="1560.58" waitingTime="5.00" waitingCount="1" stopTime="0.00" timeLoss="148.28" rerouteNo="0" devices="tripinfo_18" vType="normal_car" speedFactor="0.94" vaporized=""/>
    <tripinfo id="130" depart="197.00" departLane="E0_0" departPos="5.10" departSpeed="0.00" departDelay="2.00" arrival="315.00" arrivalLane="E3_0" arrivalPos="600.00" arrivalSpeed="9.87" duration="118.00" routeLength="794.90" waitingTime="0.00" waitingCount="0" stopTime="0.00" timeLoss="51.23" rerouteNo="0" devices="tripinfo_130" vType="normal_car" speedFactor="1.03" vaporized=""/>
    <tripinfo id="74" depart="111.00" departLane="E1_0" departPos="5.10" departSpeed="0.00" departDelay="0.00" arrival="322.00" arrivalLane="-E3_0" arrivalPos="600.00" arrivalSpeed="8.65" duration="211.00" routeLength="1600.15" waitingTime="21.00" waitingCount="1" stopTime="0.00" timeLoss="77.63" rerouteNo="0" devices="tripinfo_74" vType="normal_car" speedFactor="0.96" vaporized=""/>
    <tripinfo id="81" depart="123.00" departLane="E3_0" departPos="5.10" departSpeed="0.00" departDelay="1.50" arrival="325.00" arrivalLane="-E4_0" arrivalPos="274.79" arrivalSpeed="5.70" duration="202.00" routeLength="1152.53" waitingTime="0.00" waitingCount="0" stopTime="0.00" timeLoss="105.84" rerouteNo="0" devices="tripinfo_81" vType="normal_car" speedFactor="1.00" vaporized=""/>
    <tripinfo id="77" depart="118.00" departLane="-E5_0" departPos="5.10" departSpeed="0.00" departDelay="2.50" arrival="326.00" arrivalLane="-E3_0" arrivalPos="600.00" arrivalSpeed="11.03" duration="208.00" routeLength="1560.58" waitingTime="0.00" waitingCount="0" stopTime="0.00" timeLoss="70.06" rerouteNo="0" devices="tripinfo_77" vType="normal_car" speedFactor="0.98" vaporized=""/>
    <tripinfo id="85" depart="128.00" departLane="E3_0" departPos="5.10" departSpeed="0.00" departDelay="0.50" arrival="326.00" arrivalLane="E4_0" arrivalPos="274.79" arrivalSpeed="7.45" duration="198.00" routeLength="1779.11" waitingTime="0.00" waitingCount="0" stopTime="0.00" timeLoss="49.14" rerouteNo="0" devices="tripinfo_85" vType="normal_car" speedFactor="0.98" vaporized=""/>
    <tripinfo id="3" depart="5.00" departLane="-E2_0" departPos="5.10" departSpeed="0.00" departDelay="0.50" arrival="327.00" arrivalLane="-E1_0" arrivalPos="447.62" arrivalSpeed="6.86" duration="322.00" routeLength="2011.73" waitingTime="2.00" waitingCount="1" stopTime="0.00" timeLoss="154.08" rerouteNo="0" devices="tripinfo_3" vType="normal_car" speedFactor="1.08" vaporized=""/>
    <tripinfo id="116" depart="174.00" departLane="E2_0" departPos="8.10" departSpeed="0.00" departDelay="0.00" arrival="329.00" arrivalLane="E5_0" arrivalPos="282.84" arrivalSpeed="4.78" duration="155.00" routeLength="721.95" waitingTime="0.00" waitingCount="0" stopTime="0.00" timeLoss="10.53" rerouteNo="0" devices="tripinfo_116" vType="truck" speedFactor="1.18" vaporized=""/>
    <tripinfo id="69" depart="107.00" departLane="-E8_0" departPos="8.10" departSpeed="0.00" departDelay="3.50" arrival="336.00" arrivalLane="-E0_0" arrivalPos="200.00" arrivalSpeed="4.67" duration="229.00" routeLength="1074.74" waitingTime="0.00" waitingCount="0" stopTime="0.00" timeLoss="13.61" rerouteNo="0" devices="tripinfo_69" vType="truck" speedFactor="1.02" vaporized=""/>
    <tripinfo id="63" depart="96.00" departLane="E3_0" departPos="5.10" departSpeed="0.00" departDelay="1.50" arrival="338.00" arrivalLane="-E7_0" arrivalPos="400.00" arrivalSpeed="6.75" duration="242.00" routeLength="1277.74" waitingTime="28.00" waitingCount="2" stopTime="0.00" timeLoss="127.89" rerouteNo="0" devices="tripinfo_63" vType="normal_car" speedFactor="0.99" vaporized=""/>
    <tripinfo id="76" depart="114.00" departLane="-E9_0" departPos="5.10" departSpeed="0.00" departDelay="0.00" arrival="338.00" arrivalLane="-E0_0" arrivalPos="200.00" arrivalSpeed="7.75" duration="224.00" routeLength="1277.74" waitingTime="0.00" waitingCount="0" stopTime="0.00" timeLoss="117.46" rerouteNo="0" devices="tripinfo_76" vType="normal_car" speedFactor="1.03" vaporized=""/>
    <tripinfo id="89" depart="134.00" departLane="E0_0" departPos="5.10" departSpeed="0.00" departDelay="0.50" arrival="340.00" arrivalLane="-E0_0" arrivalPos="200.00" arrivalSpeed="9.28" duration="206.00" routeLength="1564.52" waitingTime="33.00" waitingCount="1" stopTime="0.00" timeLoss="75.52" rerouteNo="0" devices="tripinfo_89" vType="normal_car" speedFactor="1.02" vaporized=""/>