<?xml version="1.0" encoding="UTF-8"?>

<!-- generated on 2023-06-28 13:09:34 by Eclipse SUMO GUI Version 1.17.0
<configuration xmlns:xsi="http://www.w3.org/2001/XMLSchema-instance" xsi:noNamespaceSchemaLocation="http://sumo.dlr.de/xsd/sumoConfiguration.xsd">

    <input>
        <net-file value="././Net/dqnm.net.xml"/>
        <route-files value="././Rou/random.rou.xml"/>
        <additional-files value="././Add/random.det.xml"/>
    </input>

    <output>
        <tripinfo-output value="tripinfo.xml"/>
    </output>

    <time>
        <begin value="0"/>
        <end value="10000"/>
    </time>

    <traci_server>
        <remote-port value="54309"/>
    </traci_server>

    <gui_only>
        <gui-settings-file value="./rl1.settings.xml"/>
    </gui_only>

</configuration>
-->

<detector xmlns:xsi="http://www.w3.org/2001/XMLSchema-instance" xsi:noNamespaceSchemaLocation="http://sumo.dlr.de/xsd/det_e1_file.xsd">
    <interval begin="0.00" end="30.00" id="-D0" nVehContrib="0" flow="0.00" occupancy="0.00" speed="-1.00" harmonicMeanSpeed="-1.00" length="-1.00" nVehEntered="0"/>
    <interval begin="0.00" end="30.00" id="-D1" nVehContrib="0" flow="0.00" occupancy="0.00" speed="-1.00" harmonicMeanSpeed="-1.00" length="-1.00" nVehEntered="0"/>
    <interval begin="0.00" end="30.00" id="-D2" nVehContrib="0" flow="0.00" occupancy="0.00" speed="-1.00" harmonicMeanSpeed="-1.00" length="-1.00" nVehEntered="0"/>
    <interval begin="0.00" end="30.00" id="-D3" nVehContrib="0" flow="0.00" occupancy="0.00" speed="-1.00" harmonicMeanSpeed="-1.00" length="-1.00" nVehEntered="0"/>
    <interval begin="0.00" end="30.00" id="-D4" nVehContrib="0" flow="0.00" occupancy="0.00" speed="-1.00" harmonicMeanSpeed="-1.00" length="-1.00" nVehEntered="0"/>
    <interval begin="0.00" end="30.00" id="-D5" nVehContrib="0" flow="0.00" occupancy="0.00" speed="-1.00" harmonicMeanSpeed="-1.00" length="-1.00" nVehEntered="0"/>
    <interval begin="0.00" end="30.00" id="-D6" nVehContrib="0" flow="0.00" occupancy="0.00" speed="-1.00" harmonicMeanSpeed="-1.00" length="-1.00" nVehEntered="0"/>
    <interval begin="0.00" end="30.00" id="-D7" nVehContrib="0" flow="0.00" occupancy="0.00" speed="-1.00" harmonicMeanSpeed="-1.00" length="-1.00" nVehEntered="0"/>
    <interval begin="0.00" end="30.00" id="-D8" nVehContrib="0" flow="0.00" occupancy="0.00" speed="-1.00" harmonicMeanSpeed="-1.00" length="-1.00" nVehEntered="0"/>
    <interval begin="0.00" end="30.00" id="-D9" nVehContrib="0" flow="0.00" occupancy="0.00" speed="-1.00" harmonicMeanSpeed="-1.00" length="-1.00" nVehEntered="0"/>
    <interval begin="0.00" end="30.00" id="D0" nVehContrib="1" flow="120.00" occupancy="1.33" speed="12.51" harmonicMeanSpeed="12.51" length="5.00" nVehEntered="1"/>
    <interval begin="0.00" end="30.00" id="D1" nVehContrib="0" flow="0.00" occupancy="0.00" speed="-1.00" harmonicMeanSpeed="-1.00" length="-1.00" nVehEntered="0"/>
    <interval begin="0.00" end="30.00" id="D2" nVehContrib="0" flow="0.00" occupancy="0.00" speed="-1.00" harmonicMeanSpeed="-1.00" length="-1.00" nVehEntered="0"/>
    <interval begin="0.00" end="30.00" id="D3" nVehContrib="0" flow="0.00" occupancy="0.00" speed="-1.00" harmonicMeanSpeed="-1.00" length="-1.00" nVehEntered="0"/>
    <interval begin="0.00" end="30.00" id="D4" nVehContrib="0" flow="0.00" occupancy="0.00" speed="-1.00" harmonicMeanSpeed="-1.00" length="-1.00" nVehEntered="0"/>
    <interval begin="0.00" end="30.00" id="D5" nVehContrib="0" flow="0.00" occupancy="0.00" speed="-1.00" harmonicMeanSpeed="-1.00" length="-1.00" nVehEntered="0"/>
    <interval begin="0.00" end="30.00" id="D6" nVehContrib="0" flow="0.00" occupancy="0.00" speed="-1.00" harmonicMeanSpeed="-1.00" length="-1.00" nVehEntered="0"/>
    <interval begin="0.00" end="30.00" id="D7" nVehContrib="0" flow="0.00" occupancy="0.00" speed="-1.00" harmonicMeanSpeed="-1.00" length="-1.00" nVehEntered="0"/>
    <interval begin="0.00" end="30.00" id="D8" nVehContrib="0" flow="0.00" occupancy="0.00" speed="-1.00" harmonicMeanSpeed="-1.00" length="-1.00" nVehEntered="0"/>
    <interval begin="0.00" end="30.00" id="D9" nVehContrib="0" flow="0.00" occupancy="0.00" speed="-1.00" harmonicMeanSpeed="-1.00" length="-1.00" nVehEntered="0"/>
    <interval begin="30.00" end="60.00" id="-D0" nVehContrib="0" flow="0.00" occupancy="0.00" speed="-1.00" harmonicMeanSpeed="-1.00" length="-1.00" nVehEntered="0"/>
    <interval begin="30.00" end="60.00" id="-D1" nVehContrib="2" flow="240.00" occupancy="4.32" speed="7.71" harmonicMeanSpeed="7.71" length="5.00" nVehEntered="2"/>
    <interval begin="30.00" end="60.00" id="-D2" nVehContrib="2" flow="240.00" occupancy="4.63" speed="7.20" harmonicMeanSpeed="7.20" length="5.00" nVehEntered="2"/>
    <interval begin="30.00" end="60.00" id="-D3" nVehContrib="0" flow="0.00" occupancy="0.00" speed="-1.00" harmonicMeanSpeed="-1.00" length="-1.00" nVehEntered="0"/>
    <interval begin="30.00" end="60.00" id="-D4" nVehContrib="0" flow="0.00" occupancy="0.00" speed="-1.00" harmonicMeanSpeed="-1.00" length="-1.00" nVehEntered="0"/>
    <interval begin="30.00" end="60.00" id="-D5" nVehContrib="1" flow="120.00" occupancy="1.87" speed="8.91" harmonicMeanSpeed="8.91" length="5.00" nVehEntered="1"/>
    <interval begin="30.00" end="60.00" id="-D6" nVehContrib="0" flow="0.00" occupancy="0.00" speed="-1.00" harmonicMeanSpeed="-1.00" length="-1.00" nVehEntered="0"/>
    <interval begin="30.00" end="60.00" id="-D7" nVehContrib="1" flow="120.00" occupancy="2.03" speed="8.21" harmonicMeanSpeed="8.21" length="5.00" nVehEntered="1"/>
    <interval begin="30.00" end="60.00" id="-D8" nVehContrib="0" flow="0.00" occupancy="0.00" speed="-1.00" harmonicMeanSpeed="-1.00" length="-1.00" nVehEntered="0"/>
    <interval begin="30.00" end="60.00" id="-D9" nVehContrib="1" flow="120.00" occupancy="2.15" speed="7.75" harmonicMeanSpeed="7.75" length="5.00" nVehEntered="1"/>
    <interval begin="30.00" end="60.00" id="D0" nVehContrib="1" flow="120.00" occupancy="2.18" speed="7.66" harmonicMeanSpeed="7.66" length="5.00" nVehEntered="1"/>
    <interval begin="30.00" end="60.00" id="D1" nVehContrib="0" flow="0.00" occupancy="0.00" speed="-1.00" harmonicMeanSpeed="-1.00" length="-1.00" nVehEntered="0"/>
    <interval begin="30.00" end="60.00" id="D2" nVehContrib="1" flow="120.00" occupancy="2.30" speed="7.24" harmonicMeanSpeed="7.24" length="5.00" nVehEntered="1"/>
    <interval begin="30.00" end="60.00" id="D3" nVehContrib="0" flow="0.00" occupancy="0.00" speed="-1.00" harmonicMeanSpeed="-1.00" length="-1.00" nVehEntered="0"/>
    <interval begin="30.00" end="60.00" id="D4" nVehContrib="1" flow="120.00" occupancy="2.28" speed="7.32" harmonicMeanSpeed="7.32" length="5.00" nVehEntered="1"/>
    <interval begin="30.00" end="60.00" id="D5" nVehContrib="0" flow="0.00" occupancy="0.00" speed="-1.00" harmonicMeanSpeed="-1.00" length="-1.00" nVehEntered="0"/>
    <interval begin="30.00" end="60.00" id="D6" nVehContrib="0" flow="0.00" occupancy="0.00" speed="-1.00" harmonicMeanSpeed="-1.00" length="-1.00" nVehEntered="0"/>
    <interval begin="30.00" end="60.00" id="D7" nVehContrib="1" flow="120.00" occupancy="2.34" speed="7.11" harmonicMeanSpeed="7.11" length="5.00" nVehEntered="1"/>
    <interval begin="30.00" end="60.00" id="D8" nVehContrib="0" flow="0.00" occupancy="2.42" speed="-1.00" harmonicMeanSpeed="-1.00" length="-1.00" nVehEntered="1"/>
    <interval begin="30.00" end="60.00" id="D9" nVehContrib="0" flow="0.00" occupancy="0.00" speed="-1.00" harmonicMeanSpeed="-1.00" length="-1.00" nVehEntered="0"/>
    <interval begin="60.00" end="90.00" id="-D0" nVehContrib="2" flow="240.00" occupancy="2.99" speed="11.15" harmonicMeanSpeed="11.15" length="5.00" nVehEntered="2"/>
    <interval begin="60.00" end="90.00" id="-D1" nVehContrib="0" flow="0.00" occupancy="0.00" speed="-1.00" harmonicMeanSpeed="-1.00" length="-1.00" nVehEntered="0"/>
    <interval begin="60.00" end="90.00" id="-D2" nVehContrib="1" flow="120.00" occupancy="2.27" speed="7.35" harmonicMeanSpeed="7.35" length="5.00" nVehEntered="1"/>
    <interval begin="60.00" end="90.00" id="-D3" nVehContrib="0" flow="0.00" occupancy="0.00" speed="-1.00" harmonicMeanSpeed="-1.00" length="-1.00" nVehEntered="0"/>
    <interval begin="60.00" end="90.00" id="-D4" nVehContrib="1" flow="120.00" occupancy="5.74" speed="4.64" harmonicMeanSpeed="4.64" length="8.00" nVehEntered="1"/>
    <interval begin="60.00" end="90.00" id="-D5" nVehContrib="2" flow="240.00" occupancy="2.94" speed="11.33" harmonicMeanSpeed="11.33" length="5.00" nVehEntered="2"/>
    <interval begin="60.00" end="90.00" id="-D6" nVehContrib="0" flow="0.00" occupancy="0.00" speed="-1.00" harmonicMeanSpeed="-1.00" length="-1.00" nVehEntered="0"/>
    <interval begin="60.00" end="90.00" id="-D7" nVehContrib="1" flow="120.00" occupancy="2.16" speed="7.71" harmonicMeanSpeed="7.71" length="5.00" nVehEntered="1"/>
    <interval begin="60.00" end="90.00" id="-D8" nVehContrib="3" flow="360.00" occupancy="4.46" speed="11.22" harmonicMeanSpeed="11.21" length="5.00" nVehEntered="3"/>
    <interval begin="60.00" end="90.00" id="-D9" nVehContrib="2" flow="240.00" occupancy="4.45" speed="7.54" harmonicMeanSpeed="7.50" length="5.00" nVehEntered="2"/>
    <interval begin="60.00" end="90.00" id="D0" nVehContrib="0" flow="0.00" occupancy="0.27" speed="-1.00" harmonicMeanSpeed="-1.00" length="-1.00" nVehEntered="1"/>
    <interval begin="60.00" end="90.00" id="D1" nVehContrib="0" flow="0.00" occupancy="0.00" speed="-1.00" harmonicMeanSpeed="-1.00" length="-1.00" nVehEntered="0"/>
    <interval begin="60.00" end="90.00" id="D2" nVehContrib="1" flow="120.00" occupancy="2.12" speed="7.85" harmonicMeanSpeed="7.85" length="5.00" nVehEntered="1"/>
    <interval begin="60.00" end="90.00" id="D3" nVehContrib="0" flow="0.00" occupancy="0.00" speed="-1.00" harmonicMeanSpeed="-1.00" length="-1.00" nVehEntered="0"/>
    <interval begin="60.00" end="90.00" id="D4" nVehContrib="2" flow="240.00" occupancy="2.88" speed="11.59" harmonicMeanSpeed="11.59" length="5.00" nVehEntered="2"/>
    <interval begin="60.00" end="90.00" id="D5" nVehContrib="2" flow="240.00" occupancy="4.33" speed="7.72" harmonicMeanSpeed="7.70" length="5.00" nVehEntered="2"/>
    <interval begin="60.00" end="90.00" id="D6" nVehContrib="2" flow="240.00" occupancy="14.68" speed="4.72" harmonicMeanSpeed="2.27" length="5.00" nVehEntered="2"/>
    <interval begin="60.00" end="90.00" id="D7" nVehContrib="2" flow="240.00" occupancy="5.98" speed="5.75" harmonicMeanSpeed="5.57" length="5.00" nVehEntered="2"/>
    <interval begin="60.00" end="90.00" id="D8" nVehContrib="3" flow="360.00" occupancy="7.20" speed="7.57" harmonicMeanSpeed="6.69" length="6.00" nVehEntered="2"/>
    <interval begin="60.00" end="90.00" id="D9" nVehContrib="0" flow="0.00" occupancy="0.00" speed="-1.00" harmonicMeanSpeed="-1.00" length="-1.00" nVehEntered="0"/>
    <interval begin="90.00" end="120.00" id="-D0" nVehContrib="0" flow="0.00" occupancy="0.00" speed="-1.00" harmonicMeanSpeed="-1.00" length="-1.00" nVehEntered="0"/>
    <interval begin="90.00" end="120.00" id="-D1" nVehContrib="0" flow="0.00" occupancy="0.00" speed="-1.00" harmonicMeanSpeed="-1.00" length="-1.00" nVehEntered="0"/>
    <interval begin="90.00" end="120.00" id="-D2" nVehContrib="2" flow="240.00" occupancy="4.47" speed="7.47" harmonicMeanSpeed="7.46" length="5.00" nVehEntered="2"/>
    <interval begin="90.00" end="120.00" id="-D3" nVehContrib="0" flow="0.00" occupancy="0.00" speed="-1.00" harmonicMeanSpeed="-1.00" length="-1.00" nVehEntered="0"/>
    <interval begin="90.00" end="120.00" id="-D4" nVehContrib="4" flow="480.00" occupancy="12.57" speed="6.85" harmonicMeanSpeed="6.38" length="5.75" nVehEntered="4"/>
    <interval begin="90.00" end="120.00" id="-D5" nVehContrib="2" flow="240.00" occupancy="3.58" speed="9.69" harmonicMeanSpeed="9.32" length="5.00" nVehEntered="2"/>
    <interval begin="90.00" end="120.00" id="-D6" nVehContrib="0" flow="0.00" occupancy="0.00" speed="-1.00" harmonicMeanSpeed="-1.00" length="-1.00" nVehEntered="0"/>
    <interval begin="90.00" end="120.00" id="-D7" nVehContrib="2" flow="240.00" occupancy="4.48" speed="7.46" harmonicMeanSpeed="7.44" length="5.00" nVehEntered="2"/>
    <interval begin="90.00" end="120.00" id="-D8" nVehContrib="4" flow="480.00" occupancy="5.83" speed="11.43" harmonicMeanSpeed="11.43" length="5.00" nVehEntered="4"/>
    <interval begin="90.00" end="120.00" id="-D9" nVehContrib="1" flow="120.00" occupancy="2.30" speed="7.25" harmonicMeanSpeed="7.25" length="5.00" nVehEntered="1"/>
    <interval begin="90.00" end="120.00" id="D0" nVehContrib="3" flow="360.00" occupancy="10.42" speed="7.03" harmonicMeanSpeed="5.84" length="6.00" nVehEntered="2"/>
    <interval begin="90.00" end="120.00" id="D1" nVehContrib="3" flow="360.00" occupancy="4.33" speed="11.54" harmonicMeanSpeed="11.54" length="5.00" nVehEntered="3"/>
    <interval begin="90.00" end="120.00" id="D2" nVehContrib="0" flow="0.00" occupancy="0.00" speed="-1.00" harmonicMeanSpeed="-1.00" length="-1.00" nVehEntered="0"/>
    <interval begin="90.00" end="120.00" id="D3" nVehContrib="0" flow="0.00" occupancy="0.00" speed="-1.00" harmonicMeanSpeed="-1.00" length="-1.00" nVehEntered="0"/>
    <interval begin="90.00" end="120.00" id="D4" nVehContrib="1" flow="120.00" occupancy="2.66" speed="11.20" harmonicMeanSpeed="11.20" length="5.00" nVehEntered="2"/>
    <interval begin="90.00" end="120.00" id="D5" nVehContrib="4" flow="480.00" occupancy="7.56" speed="9.04" harmonicMeanSpeed="8.82" length="5.00" nVehEntered="4"/>
    <interval begin="90.00" end="120.00" id="D6" nVehContrib="0" flow="0.00" occupancy="0.00" speed="-1.00" harmonicMeanSpeed="-1.00" length="-1.00" nVehEntered="0"/>
    <interval begin="90.00" end="120.00" id="D7" nVehContrib="2" flow="240.00" occupancy="4.27" speed="7.94" harmonicMeanSpeed="7.81" length="5.00" nVehEntered="2"/>
    <interval begin="90.00" end="120.00" id="D8" nVehContrib="2" flow="240.00" occupancy="4.44" speed="7.56" harmonicMeanSpeed="7.51" length="5.00" nVehEntered="2"/>
    <interval begin="90.00" end="120.00" id="D9" nVehContrib="1" flow="120.00" occupancy="1.47" speed="11.30" harmonicMeanSpeed="11.30" length="5.00" nVehEntered="1"/>
    <interval begin="120.00" end="150.00" id="-D0" nVehContrib="0" flow="0.00" occupancy="0.00" speed="-1.00" harmonicMeanSpeed="-1.00" length="-1.00" nVehEntered="0"/>
    <interval begin="120.00" end="150.00" id="-D1" nVehContrib="0" flow="0.00" occupancy="0.00" speed="-1.00" harmonicMeanSpeed="-1.00" length="-1.00" nVehEntered="0"/>
    <interval begin="120.00" end="150.00" id="-D2" nVehContrib="1" flow="120.00" occupancy="1.45" speed="11.47" harmonicMeanSpeed="11.47" length="5.00" nVehEntered="1"/>
    <interval begin="120.00" end="150.00" id="-D3" nVehContrib="4" flow="480.00" occupancy="13.38" speed="6.28" harmonicMeanSpeed="5.93" length="5.75" nVehEntered="4"/>
    <interval begin="120.00" end="150.00" id="-D4" nVehContrib="2" flow="240.00" occupancy="9.04" speed="4.82" harmonicMeanSpeed="4.82" length="6.50" nVehEntered="2"/>
    <interval begin="120.00" end="150.00" id="-D5" nVehContrib="3" flow="360.00" occupancy="14.95" speed="4.05" harmonicMeanSpeed="3.98" length="6.00" nVehEntered="4"/>
    <interval begin="120.00" end="150.00" id="-D6" nVehContrib="1" flow="120.00" occupancy="5.71" speed="4.67" harmonicMeanSpeed="4.67" length="8.00" nVehEntered="1"/>
    <interval begin="120.00" end="150.00" id="-D7" nVehContrib="2" flow="240.00" occupancy="29.99" speed="2.59" harmonicMeanSpeed="1.11" length="5.00" nVehEntered="2"/>
    <interval begin="120.00" end="150.00" id="-D8" nVehContrib="1" flow="120.00" occupancy="1.43" speed="11.66" harmonicMeanSpeed="11.66" length="5.00" nVehEntered="1"/>
    <interval begin="120.00" end="150.00" id="-D9" nVehContrib="1" flow="120.00" occupancy="2.10" speed="7.94" harmonicMeanSpeed="7.94" length="5.00" nVehEntered="1"/>
    <interval begin="120.00" end="150.00" id="D0" nVehContrib="1" flow="120.00" occupancy="1.44" speed="11.56" harmonicMeanSpeed="11.56" length="5.00" nVehEntered="1"/>
    <interval begin="120.00" end="150.00" id="D1" nVehContrib="2" flow="240.00" occupancy="2.84" speed="11.75" harmonicMeanSpeed="11.75" length="5.00" nVehEntered="2"/>
    <interval begin="120.00" end="150.00" id="D2" nVehContrib="0" flow="0.00" occupancy="0.00" speed="-1.00" harmonicMeanSpeed="-1.00" length="-1.00" nVehEntered="0"/>
    <interval begin="120.00" end="150.00" id="D3" nVehContrib="6" flow="720.00" occupancy="16.26" speed="7.42" harmonicMeanSpeed="7.08" length="5.50" nVehEntered="6"/>
    <interval begin="120.00" end="150.00" id="D4" nVehContrib="3" flow="360.00" occupancy="3.23" speed="11.34" harmonicMeanSpeed="11.34" length="5.00" nVehEntered="2"/>
    <interval begin="120.00" end="150.00" id="D5" nVehContrib="0" flow="0.00" occupancy="0.00" speed="-1.00" harmonicMeanSpeed="-1.00" length="-1.00" nVehEntered="0"/>
    <interval begin="120.00" end="150.00" id="D6" nVehContrib="0" flow="0.00" occupancy="0.00" speed="-1.00" harmonicMeanSpeed="-1.00" length="-1.00" nVehEntered="0"/>
    <interval begin="120.00" end="150.00" id="D7" nVehContrib="3" flow="360.00" occupancy="8.02" speed="6.45" harmonicMeanSpeed="6.24" length="5.00" nVehEntered="3"/>
    <interval begin="120.00" end="150.00" id="D8" nVehContrib="2" flow="240.00" occupancy="3.56" speed="9.71" harmonicMeanSpeed="9.37" length="5.00" nVehEntered="2"/>
    <interval begin="120.00" end="150.00" id="D9" nVehContrib="1" flow="120.00" occupancy="1.49" speed="11.20" harmonicMeanSpeed="11.20" length="5.00" nVehEntered="1"/>
    <interval begin="150.00" end="180.00" id="-D0" nVehContrib="1" flow="120.00" occupancy="1.46" speed="11.40" harmonicMeanSpeed="11.40" length="5.00" nVehEntered="1"/>
    <interval begin="150.00" end="180.00" id="-D1" nVehContrib="0" flow="0.00" occupancy="0.00" speed="-1.00" harmonicMeanSpeed="-1.00" length="-1.00" nVehEntered="0"/>
    <interval begin="150.00" end="180.00" id="-D2" nVehContrib="2" flow="240.00" occupancy="4.05" speed="11.41" harmonicMeanSpeed="11.41" length="5.00" nVehEntered="3"/>
    <interval begin="150.00" end="180.00" id="-D3" nVehContrib="3" flow="360.00" occupancy="4.62" speed="10.88" harmonicMeanSpeed="10.82" length="5.00" nVehEntered="3"/>
    <interval begin="150.00" end="180.00" id="-D4" nVehContrib="3" flow="360.00" occupancy="12.69" speed="4.77" harmonicMeanSpeed="4.76" length="6.00" nVehEntered="3"/>
    <interval begin="150.00" end="180.00" id="-D5" nVehContrib="8" flow="960.00" occupancy="16.40" speed="8.65" harmonicMeanSpeed="8.02" length="5.00" nVehEntered="7"/>
    <interval begin="150.00" end="180.00" id="-D6" nVehContrib="1" flow="120.00" occupancy="5.42" speed="4.92" harmonicMeanSpeed="4.92" length="8.00" nVehEntered="1"/>
    <interval begin="150.00" end="180.00" id="-D7" nVehContrib="1" flow="120.00" occupancy="2.44" speed="6.82" harmonicMeanSpeed="6.82" length="5.00" nVehEntered="1"/>
    <interval begin="150.00" end="180.00" id="-D8" nVehContrib="5" flow="600.00" occupancy="15.14" speed="6.77" harmonicMeanSpeed="6.40" length="5.60" nVehEntered="5"/>
    <interval begin="150.00" end="180.00" id="-D9" nVehContrib="0" flow="0.00" occupancy="0.00" speed="-1.00" harmonicMeanSpeed="-1.00" length="-1.00" nVehEntered="0"/>
    <interval begin="150.00" end="180.00" id="D0" nVehContrib="1" flow="120.00" occupancy="2.11" speed="7.91" harmonicMeanSpeed="7.91" length="5.00" nVehEntered="1"/>
    <interval begin="150.00" end="180.00" id="D1" nVehContrib="2" flow="240.00" occupancy="2.97" speed="11.22" harmonicMeanSpeed="11.22" length="5.00" nVehEntered="2"/>
    <interval begin="150.00" end="180.00" id="D2" nVehContrib="0" flow="0.00" occupancy="0.00" speed="-1.00" harmonicMeanSpeed="-1.00" length="-1.00" nVehEntered="0"/>
    <interval begin="150.00" end="180.00" id="D3" nVehContrib="0" flow="0.00" occupancy="0.00" speed="-1.00" harmonicMeanSpeed="-1.00" length="-1.00" nVehEntered="0"/>
    <interval begin="150.00" end="180.00" id="D4" nVehContrib="2" flow="240.00" occupancy="3.57" speed="9.72" harmonicMeanSpeed="9.35" length="5.00" nVehEntered="2"/>
    <interval begin="150.00" end="180.00" id="D5" nVehContrib="4" flow="480.00" occupancy="13.84" speed="5.94" harmonicMeanSpeed="5.70" length="5.75" nVehEntered="4"/>
    <interval begin="150.00" end="180.00" id="D6" nVehContrib="1" flow="120.00" occupancy="5.78" speed="4.62" harmonicMeanSpeed="4.62" length="8.00" nVehEntered="1"/>
    <interval begin="150.00" end="180.00" id="D7" nVehContrib="1" flow="120.00" occupancy="2.12" speed="7.85" harmonicMeanSpeed="7.85" length="5.00" nVehEntered="1"/>
    <interval begin="150.00" end="180.00" id="D8" nVehContrib="2" flow="240.00" occupancy="21.32" speed="4.77" harmonicMeanSpeed="1.60" length="5.00" nVehEntered="3"/>
    <interval begin="150.00" end="180.00" id="D9" nVehContrib="0" flow="0.00" occupancy="0.00" speed="-1.00" harmonicMeanSpeed="-1.00" length="-1.00" nVehEntered="0"/>
    <interval begin="180.00" end="210.00" id="-D0" nVehContrib="0" flow="0.00" occupancy="0.00" speed="-1.00" harmonicMeanSpeed="-1.00" length="-1.00" nVehEntered="0"/>
    <interval begin="180.00" end="210.00" id="-D1" nVehContrib="6" flow="720.00" occupancy="30.33" speed="4.45" harmonicMeanSpeed="3.55" length="5.50" nVehEntered="6"/>
    <interval begin="180.00" end="210.00" id="-D2" nVehContrib="5" flow="600.00" occupancy="8.20" speed="9.14" harmonicMeanSpeed="8.93" length="5.00" nVehEntered="4"/>
    <interval begin="180.00" end="210.00" id="-D3" nVehContrib="0" flow="0.00" occupancy="0.00" speed="-1.00" harmonicMeanSpeed="-1.00" length="-1.00" nVehEntered="0"/>
    <interval begin="180.00" end="210.00" id="-D4" nVehContrib="2" flow="240.00" occupancy="17.83" speed="4.62" harmonicMeanSpeed="4.62" length="8.00" nVehEntered="3"/>
    <interval begin="180.00" end="210.00" id="-D5" nVehContrib="0" flow="0.00" occupancy="0.00" speed="-1.00" harmonicMeanSpeed="-1.00" length="-1.00" nVehEntered="0"/>
    <interval begin="180.00" end="210.00" id="-D6" nVehContrib="1" flow="120.00" occupancy="15.48" speed="4.57" harmonicMeanSpeed="4.57" length="8.00" nVehEntered="2"/>
    <interval begin="180.00" end="210.00" id="-D7" nVehContrib="1" flow="120.00" occupancy="1.51" speed="11.04" harmonicMeanSpeed="11.04" length="5.00" nVehEntered="1"/>
    <interval begin="180.00" end="210.00" id="-D8" nVehContrib="1" flow="120.00" occupancy="1.46" speed="11.39" harmonicMeanSpeed="11.39" length="5.00" nVehEntered="1"/>
    <interval begin="180.00" end="210.00" id="-D9" nVehContrib="4" flow="480.00" occupancy="17.60" speed="5.10" harmonicMeanSpeed="5.02" length="6.50" nVehEntered="4"/>
    <interval begin="180.00" end="210.00" id="D0" nVehContrib="3" flow="360.00" occupancy="10.31" speed="7.06" harmonicMeanSpeed="6.10" length="6.00" nVehEntered="3"/>
    <interval begin="180.00" end="210.00" id="D1" nVehContrib="3" flow="360.00" occupancy="4.35" speed="11.50" harmonicMeanSpeed="11.50" length="5.00" nVehEntered="3"/>
    <interval begin="180.00" end="210.00" id="D2" nVehContrib="3" flow="360.00" occupancy="11.20" speed="5.53" harmonicMeanSpeed="5.48" length="6.00" nVehEntered="3"/>
    <interval begin="180.00" end="210.00" id="D3" nVehContrib="4" flow="480.00" occupancy="17.67" speed="4.90" harmonicMeanSpeed="4.27" length="5.75" nVehEntered="4"/>
    <interval begin="180.00" end="210.00" id="D4" nVehContrib="0" flow="0.00" occupancy="0.00" speed="-1.00" harmonicMeanSpeed="-1.00" length="-1.00" nVehEntered="0"/>
    <interval begin="180.00" end="210.00" id="D5" nVehContrib="1" flow="120.00" occupancy="38.61" speed="7.93" harmonicMeanSpeed="7.93" length="5.00" nVehEntered="2"/>
    <interval begin="180.00" end="210.00" id="D6" nVehContrib="1" flow="120.00" occupancy="5.68" speed="4.70" harmonicMeanSpeed="4.70" length="8.00" nVehEntered="1"/>
    <interval begin="180.00" end="210.00" id="D7" nVehContrib="1" flow="120.00" occupancy="2.00" speed="8.32" harmonicMeanSpeed="8.32" length="5.00" nVehEntered="1"/>
    <interval begin="180.00" end="210.00" id="D8" nVehContrib="4" flow="480.00" occupancy="5.94" speed="10.63" harmonicMeanSpeed="10.36" length="5.00" nVehEntered="3"/>
    <interval begin="180.00" end="210.00" id="D9" nVehContrib="1" flow="120.00" occupancy="1.41" speed="11.78" harmonicMeanSpeed="11.78" length="5.00" nVehEntered="1"/>
    <interval begin="210.00" end="240.00" id="-D0" nVehContrib="1" flow="120.00" occupancy="1.42" speed="11.71" harmonicMeanSpeed="11.71" length="5.00" nVehEntered="1"/>
    <interval begin="210.00" end="240.00" id="-D1" nVehContrib="0" flow="0.00" occupancy="0.00" speed="-1.00" harmonicMeanSpeed="-1.00" length="-1.00" nVehEntered="0"/>
    <interval begin="210.00" end="240.00" id="-D2" nVehContrib="4" flow="480.00" occupancy="9.18" speed="7.28" harmonicMeanSpeed="7.26" length="5.00" nVehEntered="4"/>
    <interval begin="210.00" end="240.00" id="-D3" nVehContrib="0" flow="0.00" occupancy="0.00" speed="-1.00" harmonicMeanSpeed="-1.00" length="-1.00" nVehEntered="0"/>
    <interval begin="210.00" end="240.00" id="-D4" nVehContrib="6" flow="720.00" occupancy="59.13" speed="3.51" harmonicMeanSpeed="1.64" length="5.50" nVehEntered="6"/>
    <interval begin="210.00" end="240.00" id="-D5" nVehContrib="4" flow="480.00" occupancy="15.58" speed="4.93" harmonicMeanSpeed="4.92" length="5.75" nVehEntered="4"/>
    <interval begin="210.00" end="240.00" id="-D6" nVehContrib="4" flow="480.00" occupancy="14.12" speed="4.17" harmonicMeanSpeed="3.82" length="6.50" nVehEntered="3"/>
    <interval begin="210.00" end="240.00" id="-D7" nVehContrib="0" flow="0.00" occupancy="0.00" speed="-1.00" harmonicMeanSpeed="-1.00" length="-1.00" nVehEntered="0"/>
    <interval begin="210.00" end="240.00" id="-D8" nVehContrib="0" flow="0.00" occupancy="0.00" speed="-1.00" harmonicMeanSpeed="-1.00" length="-1.00" nVehEntered="0"/>
    <interval begin="210.00" end="240.00" id="-D9" nVehContrib="0" flow="0.00" occupancy="0.00" speed="-1.00" harmonicMeanSpeed="-1.00" length="-1.00" nVehEntered="0"/>
    <interval begin="210.00" end="240.00" id="D0" nVehContrib="2" flow="240.00" occupancy="3.73" speed="9.33" harmonicMeanSpeed="8.93" length="5.00" nVehEntered="2"/>
    <interval begin="210.00" end="240.00" id="D1" nVehContrib="3" flow="360.00" occupancy="4.39" speed="11.40" harmonicMeanSpeed="11.40" length="5.00" nVehEntered="3"/>
    <interval begin="210.00" end="240.00" id="D2" nVehContrib="2" flow="240.00" occupancy="8.97" speed="4.98" harmonicMeanSpeed="4.93" length="6.50" nVehEntered="2"/>
    <interval begin="210.00" end="240.00" id="D3" nVehContrib="6" flow="720.00" occupancy="12.30" speed="8.43" harmonicMeanSpeed="8.13" length="5.00" nVehEntered="6"/>
    <interval begin="210.00" end="240.00" id="D4" nVehContrib="2" flow="240.00" occupancy="8.74" speed="5.11" harmonicMeanSpeed="5.07" length="6.50" nVehEntered="2"/>
    <interval begin="210.00" end="240.00" id="D5" nVehContrib="6" flow="720.00" occupancy="67.25" speed="4.47" harmonicMeanSpeed="0.96" length="5.00" nVehEntered="5"/>
    <interval begin="210.00" end="240.00" id="D6" nVehContrib="4" flow="480.00" occupancy="16.78" speed="4.56" harmonicMeanSpeed="4.55" length="5.75" nVehEntered="4"/>
    <interval begin="210.00" end="240.00" id="D7" nVehContrib="0" flow="0.00" occupancy="0.00" speed="-1.00" harmonicMeanSpeed="-1.00" length="-1.00" nVehEntered="0"/>
    <interval begin="210.00" end="240.00" id="D8" nVehContrib="4" flow="480.00" occupancy="7.52" speed="9.04" harmonicMeanSpeed="8.86" length="5.00" nVehEntered="4"/>
    <interval begin="210.00" end="240.00" id="D9" nVehContrib="0" flow="0.00" occupancy="0.00" speed="-1.00" harmonicMeanSpeed="-1.00" length="-1.00" nVehEntered="0"/>
    <interval begin="240.00" end="270.00" id="-D0" nVehContrib="1" flow="120.00" occupancy="1.49" speed="11.17" harmonicMeanSpeed="11.17" length="5.00" nVehEntered="1"/>
    <interval begin="240.00" end="270.00" id="-D1" nVehContrib="1" flow="120.00" occupancy="5.36" speed="4.97" harmonicMeanSpeed="4.97" length="8.00" nVehEntered="1"/>
    <interval begin="240.00" end="270.00" id="-D2" nVehContrib="1" flow="120.00" occupancy="2.43" speed="6.86" harmonicMeanSpeed="6.86" length="5.00" nVehEntered="1"/>
    <interval begin="240.00" end="270.00" id="-D3" nVehContrib="1" flow="120.00" occupancy="5.72" speed="4.66" harmonicMeanSpeed="4.66" length="8.00" nVehEntered="1"/>
    <interval begin="240.00" end="270.00" id="-D4" nVehContrib="5" flow="600.00" occupancy="18.89" speed="4.91" harmonicMeanSpeed="4.89" length="6.20" nVehEntered="4"/>
    <interval begin="240.00" end="270.00" id="-D5" nVehContrib="3" flow="360.00" occupancy="12.38" speed="4.94" harmonicMeanSpeed="4.88" length="6.00" nVehEntered="3"/>
    <interval begin="240.00" end="270.00" id="-D6" nVehContrib="3" flow="360.00" occupancy="11.62" speed="5.47" harmonicMeanSpeed="5.27" length="6.00" nVehEntered="3"/>
    <interval begin="240.00" end="270.00" id="-D7" nVehContrib="3" flow="360.00" occupancy="14.55" speed="4.84" harmonicMeanSpeed="4.83" length="7.00" nVehEntered="3"/>
    <interval begin="240.00" end="270.00" id="-D8" nVehContrib="2" flow="240.00" occupancy="9.27" speed="4.68" harmonicMeanSpeed="4.68" length="6.50" nVehEntered="2"/>
    <interval begin="240.00" end="270.00" id="-D9" nVehContrib="1" flow="120.00" occupancy="2.05" speed="8.13" harmonicMeanSpeed="8.13" length="5.00" nVehEntered="1"/>
    <interval begin="240.00" end="270.00" id="D0" nVehContrib="1" flow="120.00" occupancy="2.20" speed="7.57" harmonicMeanSpeed="7.57" length="5.00" nVehEntered="1"/>
    <interval begin="240.00" end="270.00" id="D1" nVehContrib="1" flow="120.00" occupancy="1.43" speed="11.65" harmonicMeanSpeed="11.65" length="5.00" nVehEntered="1"/>